# vtk DataFile Version 1.0
FinEtools Export
ASCII

DATASET UNSTRUCTURED_GRID
POINTS 53 double
0.003 0.0 0.0
0.0036 0.0 0.0
0.004200000000000001 0.0 0.0
0.0048000000000000004 0.0 0.0
0.0054 0.0 0.0
0.006 0.0 0.0
0.006600000000000001 0.0 0.0
0.007200000000000001 0.0 0.0
0.0078000000000000005 0.0 0.0
0.008400000000000001 0.0 0.0
0.009000000000000001 0.0 0.0
0.003 0.002 0.0
0.0036 0.002 0.0
0.004200000000000001 0.002 0.0
0.0048000000000000004 0.002 0.0
0.0054 0.002 0.0
0.006 0.002 0.0
0.006600000000000001 0.002 0.0
0.007200000000000001 0.002 0.0
0.0078000000000000005 0.002 0.0
0.008400000000000001 0.002 0.0
0.009000000000000001 0.002 0.0
0.0033 0.0 0.0
0.0036 0.001 0.0
0.0033 0.002 0.0
0.003 0.001 0.0
0.0039000000000000003 0.0 0.0
0.004200000000000001 0.001 0.0
0.0039000000000000003 0.002 0.0
0.0045000000000000005 0.0 0.0
0.0048000000000000004 0.001 0.0
0.0045000000000000005 0.002 0.0
0.0051 0.0 0.0
0.0054 0.001 0.0
0.0051 0.002 0.0
0.0057 0.0 0.0
0.006 0.001 0.0
0.0057 0.002 0.0
0.006300000000000001 0.0 0.0
0.006600000000000001 0.001 0.0
0.006300000000000001 0.002 0.0
0.006900000000000001 0.0 0.0
0.007200000000000001 0.001 0.0
0.006900000000000001 0.002 0.0
0.007500000000000001 0.0 0.0
0.0078000000000000005 0.001 0.0
0.007500000000000001 0.002 0.0
0.0081 0.0 0.0
0.008400000000000001 0.001 0.0
0.0081 0.002 0.0
0.008700000000000001 0.0 0.0
0.009000000000000001 0.001 0.0
0.008700000000000001 0.002 0.0


CELLS 10 90
8 0 1 12 11 22 23 24 25
8 1 2 13 12 26 27 28 23
8 2 3 14 13 29 30 31 27
8 3 4 15 14 32 33 34 30
8 4 5 16 15 35 36 37 33
8 5 6 17 16 38 39 40 36
8 6 7 18 17 41 42 43 39
8 7 8 19 18 44 45 46 42
8 8 9 20 19 47 48 49 45
8 9 10 21 20 50 51 52 48


CELL_TYPES 10
23
23
23
23
23
23
23
23
23
23
POINT_DATA 53
SCALARS sigmax double
LOOKUP_TABLE default
-843970.1248115032
-672346.568717613
-457608.92910621874
-319489.23600511765
-225356.79475254283
-158302.1841569211
-108837.4668115192
-71299.41716488544
-42135.97510077714
-19026.718907994044
-7223.293729331071
-843970.1248121213
-672346.5687174855
-457608.9291052283
-319489.2360055885
-225356.79475335925
-158302.18415727056
-108837.46681122543
-71299.41716511924
-42135.97510045799
-19026.718907402414
-7223.293729094795
-812499.9999987929
-674108.979257144
-812499.9999994707
-835060.1604172161
-544642.8571426744
-458551.32918591326
-544642.8571415488
-377232.1428567837
-320038.3094414448
-377232.1428563709
-265624.9999990009
-225698.15948786517
-265624.9999999217
-187499.99999848258
-158525.4915354217
-187499.9999993676
-130681.81818078908
-108989.6556441983
-130681.8181805528
-88068.18181775091
-71406.694328283
-88068.18181755935
-55288.46153778017
-42213.76050405805
-55288.46153811576
-29532.967033440003
-19084.490560128896
-29532.967032562698
-8928.571428516538
-7706.099681621303
-8928.571428270174



